 Gaussian 16, Revision C.01,
 Gaussian 16:  ES64L-G16RevC.01  3-Jul-2019

 ------------------------------------------------------
 #p PBE1PBE/GenECP SCF(Tight,QC,Restart) Pop(Hirshfeld)
 ------------------------------------------------------

 ---------------------------
 Nickel ferrate (PBE0/SBKJC)
 ---------------------------
 Symbolic Z-matrix:
 Charge =  0 Multiplicity = 1

                         Standard orientation:
 ---------------------------------------------------------------------
 Center     Atomic      Atomic             Coordinates (Angstroms)
 Number     Number       Type             X           Y           Z
 ---------------------------------------------------------------------
      1         26           0       -0.002927   -0.003199   -0.001747
      2         26           0       -4.470899    0.983185    2.452305
      3         26           0       -1.611031   -4.282377    2.448628
      4         26           0        1.521645    0.823506    2.448200
      5         26           0       -1.518797   -0.828467   -2.446982
      6         26           0        1.614129    4.286840   -2.450745
      7         26           0        4.468827   -0.985126   -2.442922
      8         26           0       -2.904436    3.540839    2.450423
      9         26           0       -0.044569   -1.724723    2.446747
     10         26           0        3.088108    3.381159    2.446318
     11         26           0       -3.085011   -3.376696   -2.448435
     12         26           0        0.047666    1.729187   -2.448864
     13         26           0        2.902613   -3.533356   -2.444375
     14         26           0       -1.478978    0.902627    2.447896
     15         26           0        1.380890   -4.362935    2.444220
     16         26           0        4.522268    0.744385    2.448503
     17         26           0       -4.519420   -0.749346   -2.447285
     18         26           0       -1.386495    4.365961   -2.451049
     19         26           0        1.473124   -0.909025   -2.451390
     20         28           0       -3.040385   -1.647276    0.612956
     21         28           0        0.092291    3.458607    0.612528
     22         28           0        2.952159   -1.806955    0.608851
     23         28           0       -2.949062    1.811419   -0.610968
     24         28           0       -0.089443   -3.463567   -0.611310
     25         28           0        3.043482    1.651740   -0.615073
     26          8           0       -0.000935   -0.002557    3.538507
     27          8           0       -3.041377   -1.654530   -1.356675
     28          8           0        0.091548    3.460777   -1.360438
     29          8           0        2.946247   -1.811190   -1.352615
     30          8           0       -1.414285   -0.768733    1.267909
     31          8           0        1.727342    4.348012    1.268857
     32          8           0        4.586961   -0.926975    1.268515
     33          8           0       -1.321802    2.694601   -3.631036
     34          8           0        1.532897   -2.577366   -3.623213
     35          8           0       -3.089406   -3.503851    1.269940
     36          8           0        0.043271    1.602032    1.269511
     37          8           0        2.903138   -3.663530    1.265835
     38          8           0       -2.997171   -0.049940   -3.625670
     39          8           0        2.990453   -0.206600   -3.621610
     40          8           0       -4.625672   -0.682277    1.272609
     41          8           0       -1.492747    4.433030    1.268845
     42          8           0        1.366872   -0.841956    1.268504
     43          8           0       -1.673570   -2.493928   -3.626677
     44          8           0        1.459356    2.621378   -3.630441
     45          8           0       -2.957021    1.807811    1.357286
     46          8           0       -0.088451   -3.456314    1.358321
     47          8           0        3.044225    1.649569    1.357893
     48          8           0       -0.004919   -0.003841   -3.542001
     49          8           0       -1.543671    2.573987    3.627884
     50          8           0        1.316197   -2.691575    3.624207
     51          8           0       -4.584113    0.922014   -1.267297
     52          8           0       -1.724245   -4.343548   -1.270974
     53          8           0        1.408431    0.762335   -1.271403
     54          8           0       -2.992525    0.204659    3.630993
     55          8           0        3.000020    0.044980    3.626888
     56          8           0       -2.900041    3.667993   -1.267952
     57          8           0       -0.040422   -1.606993   -1.268293
     58          8           0        3.092503    3.508314   -1.272057
     59          8           0       -1.456258   -2.616915    3.628324
     60          8           0        1.676418    2.488968    3.627895
     61          8           0       -1.372726    0.835558   -1.271998
     62          8           0        1.490924   -4.425547   -1.262797
     63          8           0        4.623600    0.680335   -1.263226
 ---------------------------------------------------------------------

 SCF Done:  E(RPBE1PBE) =  -3963.29796433     a.u. after    1 cycles

 The electronic state is 1-A.
 Alpha  occ. eigenvalues --   -4.25454  -4.25440  -4.25415  -4.25411  -4.25382
 Alpha  occ. eigenvalues --   -4.25355  -3.64707  -3.64679  -3.64675  -3.64659
 Alpha  occ. eigenvalues --   -3.64655  -3.64586  -3.59265  -3.59255  -3.59249
 Alpha  occ. eigenvalues --   -3.59248  -3.59244  -3.59243  -3.59242  -3.59231
 Alpha  occ. eigenvalues --   -3.59229  -3.59216  -3.59214  -3.59163  -3.58682
 Alpha  occ. eigenvalues --   -2.74126  -2.74106  -2.74089  -2.74048  -2.74046
 Alpha  occ. eigenvalues --   -2.73990  -2.73507  -2.73464  -2.73425  -2.73420
 Alpha  occ. eigenvalues --   -2.73416  -2.73412  -2.71128  -2.71105  -2.71058
 Alpha  occ. eigenvalues --   -2.71045  -2.71022  -2.71001  -2.34349  -2.34316
 Alpha  occ. eigenvalues --   -2.34293  -2.34275  -2.34273  -2.34204  -2.33230
 Alpha  occ. eigenvalues --   -2.33211  -2.33202  -2.33183  -2.33181  -2.33131
 Alpha  occ. eigenvalues --   -2.30769  -2.30733  -2.30680  -2.30655  -2.30651
 Alpha  occ. eigenvalues --   -2.30582  -2.28377  -2.28367  -2.28365  -2.28361
 Alpha  occ. eigenvalues --   -2.28347  -2.28322  -2.28319  -2.28310  -2.28308
 Alpha  occ. eigenvalues --   -2.28297  -2.28288  -2.28238  -2.27704  -2.27693
 Alpha  occ. eigenvalues --   -2.27688  -2.27685  -2.27679  -2.27669  -2.27664
 Alpha  occ. eigenvalues --   -2.27661  -2.27648  -2.27641  -2.27634  -2.27593
 Alpha  occ. eigenvalues --   -2.27345  -2.27322  -2.27309  -2.27308  -2.27306
 Alpha  occ. eigenvalues --   -2.27305  -2.27296  -2.27291  -2.27287  -2.27286
 Alpha  occ. eigenvalues --   -2.27276  -2.27274  -2.27230  -2.27001  -2.26997
 Alpha  occ. eigenvalues --   -0.99540  -0.98100  -0.97309  -0.97287  -0.96824
 Alpha  occ. eigenvalues --   -0.96807  -0.96414  -0.96375  -0.96300  -0.96253
 Alpha  occ. eigenvalues --   -0.96159  -0.96133  -0.91742  -0.91720  -0.91700
 Alpha  occ. eigenvalues --   -0.91620  -0.91610  -0.91463  -0.91346  -0.91179
 Alpha  occ. eigenvalues --   -0.91159  -0.91030  -0.91027  -0.91016  -0.90967
 Alpha  occ. eigenvalues --   -0.90910  -0.90171  -0.90153  -0.90121  -0.90100
 Alpha  occ. eigenvalues --   -0.89966  -0.89914  -0.89329  -0.89314  -0.89300
 Alpha  occ. eigenvalues --   -0.89276  -0.89146  -0.89120  -0.49447  -0.47879
 Alpha  occ. eigenvalues --   -0.46730  -0.46720  -0.45863  -0.45832  -0.45681
 Alpha  occ. eigenvalues --   -0.45413  -0.45362  -0.45308  -0.45239  -0.45228
 Alpha  occ. eigenvalues --   -0.44913  -0.44326  -0.44143  -0.44132  -0.44110
 Alpha  occ. eigenvalues --   -0.43320  -0.43308  -0.42399  -0.42336  -0.42325
 Alpha  occ. eigenvalues --   -0.42213  -0.42209  -0.41893  -0.41869  -0.41701
 Alpha  occ. eigenvalues --   -0.41584  -0.40998  -0.40991  -0.40830  -0.40828
 Alpha  occ. eigenvalues --   -0.40621  -0.40600  -0.40586  -0.40353  -0.40291
 Alpha  occ. eigenvalues --   -0.40182  -0.40169  -0.39840  -0.39819  -0.39404
 Alpha  occ. eigenvalues --   -0.39398  -0.39385  -0.39256  -0.39196  -0.39126
 Alpha  occ. eigenvalues --   -0.39119  -0.38376  -0.38168  -0.38159  -0.38068
 Alpha  occ. eigenvalues --   -0.38053  -0.37511  -0.37445  -0.37435  -0.37316
 Alpha  occ. eigenvalues --   -0.37207  -0.37200  -0.37124  -0.37119  -0.36987
 Alpha  occ. eigenvalues --   -0.36639  -0.36525  -0.36401  -0.36395  -0.36238
 Alpha  occ. eigenvalues --   -0.36231  -0.36128  -0.36062  -0.35573  -0.35569
 Alpha  occ. eigenvalues --   -0.35149  -0.35133  -0.34998  -0.34992  -0.34547
 Alpha  occ. eigenvalues --   -0.34435  -0.34431  -0.34306  -0.34300  -0.34236
 Alpha  occ. eigenvalues --   -0.33937  -0.33778  -0.33772  -0.33735  -0.33499
 Alpha  occ. eigenvalues --   -0.33344  -0.33336  -0.33316  -0.33309  -0.32889
 Alpha  occ. eigenvalues --   -0.32845  -0.32775  -0.32764  -0.32658  -0.32620
 Alpha  occ. eigenvalues --   -0.32606  -0.32453  -0.32403  -0.32396  -0.32115
 Alpha  occ. eigenvalues --   -0.32056  -0.32028  -0.32010  -0.31808  -0.31615
 Alpha  occ. eigenvalues --   -0.31612  -0.31371  -0.31365  -0.31281  -0.31274
 Alpha  occ. eigenvalues --   -0.31157  -0.31151  -0.31047  -0.31014  -0.31009
 Alpha  occ. eigenvalues --   -0.30912  -0.30741  -0.30720  -0.30705  -0.30698
 Alpha  occ. eigenvalues --   -0.30660  -0.30641  -0.30170  -0.30163  -0.29915
 Alpha  occ. eigenvalues --   -0.29840  -0.29767  -0.29672  -0.29567  -0.29536
 Alpha  occ. eigenvalues --   -0.29525  -0.29447  -0.29370  -0.29244  -0.29235
 Alpha  occ. eigenvalues --   -0.29194  -0.29184  -0.28981  -0.28968  -0.28729
 Alpha  occ. eigenvalues --   -0.28727  -0.28693  -0.28686  -0.28669  -0.28661
 Alpha  occ. eigenvalues --   -0.28453  -0.28331  -0.28151  -0.28149  -0.28094
 Alpha  occ. eigenvalues --   -0.28082  -0.28026  -0.28025  -0.27971  -0.27950
 Alpha  occ. eigenvalues --   -0.27603  -0.27405  -0.27390  -0.27279  -0.27184
 Alpha  occ. eigenvalues --   -0.27101  -0.27083  -0.27058  -0.26945  -0.26923
 Alpha  occ. eigenvalues --   -0.26654  -0.26602  -0.26596  -0.26245  -0.26076
 Alpha  occ. eigenvalues --   -0.25913  -0.25906  -0.25596  -0.25583  -0.25528
 Alpha  occ. eigenvalues --   -0.23926  -0.23918  -0.23788  -0.23772  -0.23061
 Alpha virt. eigenvalues --   -0.20806  -0.19083  -0.19076  -0.18938  -0.18692
 Alpha virt. eigenvalues --   -0.18518  -0.18503  -0.18439  -0.18432  -0.18369
 Alpha virt. eigenvalues --   -0.18350  -0.18259  -0.17833  -0.17476  -0.17460

 Mulliken charges:
               1
     1  Fe   2.528141
     2  Fe   0.477036
     3  Fe   0.475679
     4  Fe   0.359199
     5  Fe   0.359457
     6  Fe   0.477492
     7  Fe   0.477107
     8  Fe   0.476236
     9  Fe   0.354139
    10  Fe   0.476703
    11  Fe   0.473287
    12  Fe   0.363095
    13  Fe   0.476594
    14  Fe   0.363557
    15  Fe   0.476082
    16  Fe   0.477846
    17  Fe   0.476766
    18  Fe   0.476755
    19  Fe   0.355067
    20  Ni   0.619064
    21  Ni   0.619566
    22  Ni   0.620692
    23  Ni   0.616792
    24  Ni   0.618056
    25  Ni   0.617989
    26  O   -0.145855
    27  O   -0.635093
    28  O   -0.634450
    29  O   -0.637788
    30  O   -0.563379
    31  O   -0.354983
    32  O   -0.353606
    33  O   -0.200938
    34  O   -0.199360
    35  O   -0.354408
    36  O   -0.561679
    37  O   -0.352867
    38  O   -0.198208
    39  O   -0.200816
    40  O   -0.353023
    41  O   -0.355184
    42  O   -0.561177
    43  O   -0.198187
    44  O   -0.199954
    45  O   -0.635662
    46  O   -0.634754
    47  O   -0.633879
    48  O   -0.145978
    49  O   -0.200341
    50  O   -0.196900
    51  O   -0.355144
    52  O   -0.353436
    53  O   -0.560778
    54  O   -0.198981
    55  O   -0.200074
    56  O   -0.354001
    57  O   -0.560746
    58  O   -0.354310
    59  O   -0.197965
    60  O   -0.200270
    61  O   -0.560559
    62  O   -0.353470
    63  O   -0.354192
 Sum of Mulliken charges =   0.00000

 Dipole moment (field-independent basis, Debye):
    X=              0.0164    Y=              0.0408    Z=              0.0312  Tot=              0.0539
 Quadrupole moment (field-independent basis, Debye-Ang):
   XX=           -431.5504   YY=           -431.7289   ZZ=           -611.5255
   XY=              0.0545   XZ=             -0.0083   YZ=             -0.2571

 Normal termination of Gaussian 16 at Mon Oct 20 08:37:07 2025.
