 Gaussian 16, Revision C.01,
 Gaussian 16:  ES64L-G16RevC.01  3-Jul-2019

 ------------------------------------------------------
 #p PBE1PBE/GenECP SCF(Tight,QC,Restart) Pop(Hirshfeld)
 ------------------------------------------------------

 -----------------------------
 Nickel ferrate (PBE0/LANL2DZ)
 -----------------------------
 Symbolic Z-matrix:
 Charge =  0 Multiplicity = 1

                         Standard orientation:
 ---------------------------------------------------------------------
 Center     Atomic      Atomic             Coordinates (Angstroms)
 Number     Number       Type             X           Y           Z
 ---------------------------------------------------------------------
      1         26           0       -0.002927   -0.003199   -0.001747
      2         26           0       -4.470899    0.983185    2.452305
      3         26           0       -1.611031   -4.282377    2.448628
      4         26           0        1.521645    0.823506    2.448200
      5         26           0       -1.518797   -0.828467   -2.446982
      6         26           0        1.614129    4.286840   -2.450745
      7         26           0        4.468827   -0.985126   -2.442922
      8         26           0       -2.904436    3.540839    2.450423
      9         26           0       -0.044569   -1.724723    2.446747
     10         26           0        3.088108    3.381159    2.446318
     11         26           0       -3.085011   -3.376696   -2.448435
     12         26           0        0.047666    1.729187   -2.448864
     13         26           0        2.902613   -3.533356   -2.444375
     14         26           0       -1.478978    0.902627    2.447896
     15         26           0        1.380890   -4.362935    2.444220
     16         26           0        4.522268    0.744385    2.448503
     17         26           0       -4.519420   -0.749346   -2.447285
     18         26           0       -1.386495    4.365961   -2.451049
     19         26           0        1.473124   -0.909025   -2.451390
     20         28           0       -3.040385   -1.647276    0.612956
     21         28           0        0.092291    3.458607    0.612528
     22         28           0        2.952159   -1.806955    0.608851
     23         28           0       -2.949062    1.811419   -0.610968
     24         28           0       -0.089443   -3.463567   -0.611310
     25         28           0        3.043482    1.651740   -0.615073
     26          8           0       -0.000935   -0.002557    3.538507
     27          8           0       -3.041377   -1.654530   -1.356675
     28          8           0        0.091548    3.460777   -1.360438
     29          8           0        2.946247   -1.811190   -1.352615
     30          8           0       -1.414285   -0.768733    1.267909
     31          8           0        1.727342    4.348012    1.268857
     32          8           0        4.586961   -0.926975    1.268515
     33          8           0       -1.321802    2.694601   -3.631036
     34          8           0        1.532897   -2.577366   -3.623213
     35          8           0       -3.089406   -3.503851    1.269940
     36          8           0        0.043271    1.602032    1.269511
     37          8           0        2.903138   -3.663530    1.265835
     38          8           0       -2.997171   -0.049940   -3.625670
     39          8           0        2.990453   -0.206600   -3.621610
     40          8           0       -4.625672   -0.682277    1.272609
     41          8           0       -1.492747    4.433030    1.268845
     42          8           0        1.366872   -0.841956    1.268504
     43          8           0       -1.673570   -2.493928   -3.626677
     44          8           0        1.459356    2.621378   -3.630441
     45          8           0       -2.957021    1.807811    1.357286
     46          8           0       -0.088451   -3.456314    1.358321
     47          8           0        3.044225    1.649569    1.357893
     48          8           0       -0.004919   -0.003841   -3.542001
     49          8           0       -1.543671    2.573987    3.627884
     50          8           0        1.316197   -2.691575    3.624207
     51          8           0       -4.584113    0.922014   -1.267297
     52          8           0       -1.724245   -4.343548   -1.270974
     53          8           0        1.408431    0.762335   -1.271403
     54          8           0       -2.992525    0.204659    3.630993
     55          8           0        3.000020    0.044980    3.626888
     56          8           0       -2.900041    3.667993   -1.267952
     57          8           0       -0.040422   -1.606993   -1.268293
     58          8           0        3.092503    3.508314   -1.272057
     59          8           0       -1.456258   -2.616915    3.628324
     60          8           0        1.676418    2.488968    3.627895
     61          8           0       -1.372726    0.835558   -1.271998
     62          8           0        1.490924   -4.425547   -1.262797
     63          8           0        4.623600    0.680335   -1.263226
 ---------------------------------------------------------------------

 SCF Done:  E(RPBE1PBE) =  -6213.32820542     a.u. after    1 cycles

 The electronic state is 1-A.
 Alpha  occ. eigenvalues --  -19.25881 -19.25849 -19.25830 -19.25823 -19.25817
 Alpha  occ. eigenvalues --  -19.25806 -19.24855 -19.24853 -19.24827 -19.24824
 Alpha  occ. eigenvalues --  -19.24824 -19.24822 -19.24563 -19.24557 -19.24552
 Alpha  occ. eigenvalues --  -19.24551 -19.24547 -19.24536 -19.24523 -19.24510
 Alpha  occ. eigenvalues --  -19.24510 -19.24505 -19.24488 -19.24471 -19.23531
 Alpha  occ. eigenvalues --  -19.23527 -19.23503 -19.23498 -19.23495 -19.23486
 Alpha  occ. eigenvalues --  -19.23481 -19.23472 -19.23462 -19.23436 -19.23428
 Alpha  occ. eigenvalues --  -19.23379 -19.21536 -19.21492  -4.17146  -4.17135
 Alpha  occ. eigenvalues --   -4.17107  -4.17107  -4.17072  -4.17045  -3.62013
 Alpha  occ. eigenvalues --   -3.61979  -3.61974  -3.61962  -3.61955  -3.61892
 Alpha  occ. eigenvalues --   -3.56901  -3.56894  -3.56893  -3.56890  -3.56885
 Alpha  occ. eigenvalues --   -3.56884  -3.56883  -3.56876  -3.56873  -3.56860
 Alpha  occ. eigenvalues --   -3.56859  -3.56815  -3.56391  -2.77099  -2.77085
 Alpha  occ. eigenvalues --   -2.77070  -2.77023  -2.77014  -2.76962  -2.76319
 Alpha  occ. eigenvalues --   -2.76267  -2.76233  -2.76224  -2.76220  -2.76216
 Alpha  occ. eigenvalues --   -2.74096  -2.74076  -2.74032  -2.74020  -2.73993
 Alpha  occ. eigenvalues --   -2.73970  -2.39521  -2.39479  -2.39457  -2.39443
 Alpha  occ. eigenvalues --   -2.39437  -2.39376  -2.38541  -2.38528  -2.38513
 Alpha  occ. eigenvalues --   -2.38505  -2.38499  -2.38455  -2.36034  -2.35993
 Alpha  occ. eigenvalues --   -2.35957  -2.35932  -2.35930  -2.35862  -2.33977
 Alpha  occ. eigenvalues --   -2.33969  -2.33969  -2.33963  -2.33952  -2.33931
 Alpha  occ. eigenvalues --   -2.33924  -2.33923  -2.33921  -2.33911  -2.33903
 Alpha  occ. eigenvalues --   -2.33857  -2.33282  -2.33278  -2.33272  -2.33269
 Alpha  occ. eigenvalues --   -2.33266  -2.33261  -2.33253  -2.33251  -2.33241
 Alpha  occ. eigenvalues --   -2.33229  -2.33228  -2.33191  -2.32960  -2.32953
 Alpha  occ. eigenvalues --   -2.32951  -2.32947  -2.32944  -2.32940  -2.32938
 Alpha  occ. eigenvalues --   -2.32933  -2.32928  -2.32927  -2.32920  -2.32917
 Alpha  occ. eigenvalues --   -2.32881  -2.32624  -2.32620  -0.98916  -0.97546
 Alpha  occ. eigenvalues --   -0.96832  -0.96810  -0.96326  -0.96306  -0.96044
 Alpha  occ. eigenvalues --   -0.96017  -0.95967  -0.95921  -0.95777  -0.95753
 Alpha  occ. eigenvalues --   -0.91911  -0.91890  -0.91866  -0.91793  -0.91782
 Alpha  occ. eigenvalues --   -0.91646  -0.91520  -0.91364  -0.91348  -0.91220
 Alpha  occ. eigenvalues --   -0.91211  -0.91160  -0.91018  -0.90904  -0.90484
 Alpha  occ. eigenvalues --   -0.90465  -0.90431  -0.90415  -0.90101  -0.90040
 Alpha  occ. eigenvalues --   -0.89687  -0.89668  -0.89657  -0.89636  -0.89503
 Alpha  occ. eigenvalues --   -0.89478  -0.48816  -0.47298  -0.46097  -0.46087
 Alpha  occ. eigenvalues --   -0.45413  -0.45371  -0.45192  -0.45122  -0.45088
 Alpha  occ. eigenvalues --   -0.45008  -0.44848  -0.44832  -0.44579  -0.44118
 Alpha  occ. eigenvalues --   -0.43830  -0.43797  -0.43767  -0.43039  -0.43030
 Alpha  occ. eigenvalues --   -0.42236  -0.42221  -0.42108  -0.42046  -0.42041
 Alpha  occ. eigenvalues --   -0.41691  -0.41663  -0.41628  -0.41285  -0.41018
 Alpha  occ. eigenvalues --   -0.41010  -0.40705  -0.40654  -0.40649  -0.40385
 Alpha  occ. eigenvalues --   -0.40297  -0.40271  -0.40129  -0.40078  -0.40067
 Alpha  occ. eigenvalues --   -0.39792  -0.39772  -0.39419  -0.39324  -0.39312
 Alpha  occ. eigenvalues --   -0.39140  -0.39063  -0.38969  -0.38961  -0.38462
 Alpha  occ. eigenvalues --   -0.38300  -0.38292  -0.38195  -0.38184  -0.37622
 Alpha  occ. eigenvalues --   -0.37577  -0.37454  -0.37445  -0.37265  -0.37257
 Alpha  occ. eigenvalues --   -0.37233  -0.37220  -0.37125  -0.36877  -0.36646
 Alpha  occ. eigenvalues --   -0.36613  -0.36608  -0.36334  -0.36327  -0.36221
 Alpha  occ. eigenvalues --   -0.36200  -0.35730  -0.35726  -0.35320  -0.35305
 Alpha  occ. eigenvalues --   -0.35193  -0.35188  -0.34679  -0.34610  -0.34603
 Alpha  occ. eigenvalues --   -0.34528  -0.34462  -0.34459  -0.34183  -0.34041
 Alpha  occ. eigenvalues --   -0.34035  -0.33907  -0.33617  -0.33607  -0.33602
 Alpha  occ. eigenvalues --   -0.33597  -0.33492  -0.33451  -0.33123  -0.33115
 Alpha  occ. eigenvalues --   -0.33035  -0.32892  -0.32886  -0.32858  -0.32849
 Alpha  occ. eigenvalues --   -0.32848  -0.32836  -0.32401  -0.32313  -0.32191
 Alpha  occ. eigenvalues --   -0.32168  -0.32007  -0.31795  -0.31790  -0.31713
 Alpha  occ. eigenvalues --   -0.31709  -0.31614  -0.31608  -0.31528  -0.31417
 Alpha  occ. eigenvalues --   -0.31354  -0.31321  -0.31315  -0.31199  -0.31099
 Alpha  occ. eigenvalues --   -0.31087  -0.30983  -0.30973  -0.30958  -0.30943
 Alpha  occ. eigenvalues --   -0.30513  -0.30505  -0.30358  -0.30273  -0.30205
 Alpha  occ. eigenvalues --   -0.30187  -0.30117  -0.30037  -0.30022  -0.29915
 Alpha  occ. eigenvalues --   -0.29843  -0.29719  -0.29706  -0.29526  -0.29515
 Alpha  occ. eigenvalues --   -0.29414  -0.29410  -0.29201  -0.29196  -0.29137
 Alpha  occ. eigenvalues --   -0.29129  -0.29017  -0.29005  -0.28882  -0.28638
 Alpha  occ. eigenvalues --   -0.28556  -0.28542  -0.28496  -0.28492  -0.28473
 Alpha  occ. eigenvalues --   -0.28455  -0.28444  -0.28434  -0.28055  -0.27867
 Alpha  occ. eigenvalues --   -0.27860  -0.27700  -0.27466  -0.27456  -0.27360
 Alpha  occ. eigenvalues --   -0.27337  -0.27283  -0.27125  -0.26950  -0.26946
 Alpha  occ. eigenvalues --   -0.26786  -0.26661  -0.26477  -0.26325  -0.26317
 Alpha  occ. eigenvalues --   -0.26008  -0.25995  -0.25970  -0.24303  -0.24292
 Alpha  occ. eigenvalues --   -0.24177  -0.24160  -0.23332
 Alpha virt. eigenvalues --   -0.21103  -0.19518  -0.19504  -0.19469  -0.19105
 Alpha virt. eigenvalues --   -0.18978  -0.18974  -0.18916  -0.18914  -0.18884
 Alpha virt. eigenvalues --   -0.18863  -0.18820  -0.18293  -0.18164  -0.18145

 Mulliken charges:
               1
     1  Fe   4.221492
     2  Fe   0.638583
     3  Fe   0.636408
     4  Fe   0.574526
     5  Fe   0.566704
     6  Fe   0.637383
     7  Fe   0.639017
     8  Fe   0.637090
     9  Fe   0.567060
    10  Fe   0.637605
    11  Fe   0.640017
    12  Fe   0.573265
    13  Fe   0.641339
    14  Fe   0.577407
    15  Fe   0.639422
    16  Fe   0.636579
    17  Fe   0.636488
    18  Fe   0.636949
    19  Fe   0.566943
    20  Ni   0.440182
    21  Ni   0.433616
    22  Ni   0.437512
    23  Ni   0.436184
    24  Ni   0.435550
    25  Ni   0.432752
    26  O   -0.313173
    27  O   -0.749900
    28  O   -0.747723
    29  O   -0.753012
    30  O   -0.625404
    31  O   -0.435349
    32  O   -0.434601
    33  O   -0.319853
    34  O   -0.320776
    35  O   -0.435376
    36  O   -0.622515
    37  O   -0.433705
    38  O   -0.318290
    39  O   -0.322118
    40  O   -0.434526
    41  O   -0.435172
    42  O   -0.623218
    43  O   -0.319928
    44  O   -0.319442
    45  O   -0.749670
    46  O   -0.749714
    47  O   -0.747426
    48  O   -0.312458
    49  O   -0.320630
    50  O   -0.318179
    51  O   -0.434816
    52  O   -0.435099
    53  O   -0.621877
    54  O   -0.319373
    55  O   -0.319651
    56  O   -0.435166
    57  O   -0.622787
    58  O   -0.435417
    59  O   -0.318706
    60  O   -0.320136
    61  O   -0.622506
    62  O   -0.436476
    63  O   -0.435907
 Sum of Mulliken charges =   0.00000

 Dipole moment (field-independent basis, Debye):
    X=              0.0226    Y=              0.0362    Z=              0.0349  Tot=              0.0551
 Quadrupole moment (field-independent basis, Debye-Ang):
   XX=           -427.4939   YY=           -427.7110   ZZ=           -614.3358
   XY=              0.0310   XZ=             -0.0038   YZ=             -0.2629

 Normal termination of Gaussian 16 at Sun Oct 12 09:08:39 2025.
