 Gaussian 16, Revision C.01,
 Gaussian 16:  ES64L-G16RevC.01  3-Jul-2019

 ----------------------------------------------------------------------
 #p PBE1PBE/GenECP SCF(Tight,XQC,MaxCycle=500,MaxConventional=20) Opt(M
 axCycle=500)
 ----------------------------------------------------------------------

 -----------------------------
 Nickel ferrate (PBE0/LANL2DZ)
 -----------------------------
 Symbolic Z-matrix:
 Charge = -6 Multiplicity = 1

 SCF Done:  E(RPBE1PBE) =  -467.588571775     A.U. after   21 cycles
 SCF Done:  E(RPBE1PBE) =  -467.588573350     a.u. after    3 cycles
 SCF Done:  E(RPBE1PBE) =  -467.618353200     A.U. after   21 cycles
 SCF Done:  E(RPBE1PBE) =  -467.618621202     a.u. after    9 cycles
 SCF Done:  E(RPBE1PBE) =  -467.652985753     A.U. after   21 cycles
 SCF Done:  E(RPBE1PBE) =  -467.652985866     a.u. after    3 cycles
 SCF Done:  E(RPBE1PBE) =  -467.655083144     A.U. after   21 cycles
 SCF Done:  E(RPBE1PBE) =  -467.655083177     a.u. after    3 cycles
 SCF Done:  E(RPBE1PBE) =  -467.655113571     A.U. after   21 cycles
 SCF Done:  E(RPBE1PBE) =  -467.655113572     a.u. after    3 cycles
 SCF Done:  E(RPBE1PBE) =  -467.655219737     A.U. after   21 cycles
 SCF Done:  E(RPBE1PBE) =  -467.655219785     a.u. after    3 cycles
 SCF Done:  E(RPBE1PBE) =  -467.655231667     A.U. after   21 cycles
 SCF Done:  E(RPBE1PBE) =  -467.655232339     a.u. after    3 cycles
 SCF Done:  E(RPBE1PBE) =  -467.655249264     A.U. after   21 cycles
 SCF Done:  E(RPBE1PBE) =  -467.655249323     a.u. after    3 cycles
 SCF Done:  E(RPBE1PBE) =  -467.655253180     A.U. after   21 cycles
 SCF Done:  E(RPBE1PBE) =  -467.655253201     a.u. after    3 cycles
 SCF Done:  E(RPBE1PBE) =  -467.655253967     A.U. after   21 cycles
 SCF Done:  E(RPBE1PBE) =  -467.655253971     a.u. after    4 cycles
 Optimization completed.
    -- Stationary point found.

                         Standard orientation:
 ---------------------------------------------------------------------
 Center     Atomic      Atomic             Coordinates (Angstroms)
 Number     Number       Type             X           Y           Z
 ---------------------------------------------------------------------
      1         28           0        0.019074    0.014740   -0.000371
      2          8           0        0.966384   -1.440522    0.015884
      3          8           0        1.057148    1.352232   -0.012851
      4          8           0       -1.043835    0.003476   -1.355884
      5          8           0       -1.046457    0.033225    1.354150
 ---------------------------------------------------------------------

 The electronic state is 1-A.
 Alpha  occ. eigenvalues --  -18.34254 -18.33839 -18.33831 -18.33685  -3.34100
 Alpha  occ. eigenvalues --   -1.93438  -1.92757  -1.91820  -0.04440  -0.02789
 Alpha  occ. eigenvalues --   -0.02132  -0.01833   0.42002   0.42829   0.43575
 Alpha  occ. eigenvalues --    0.44829   0.44918   0.51696   0.55508   0.55766
 Alpha  occ. eigenvalues --    0.55880   0.61005   0.61119   0.61428   0.61681
 Alpha  occ. eigenvalues --    0.62594   0.63933   0.64115
 Alpha virt. eigenvalues --    0.66390   0.73460   0.74509   0.74885   0.86929
 Alpha virt. eigenvalues --    1.08332   1.09863   1.10504   1.33037   1.46912
 Alpha virt. eigenvalues --    1.47581   1.48040   1.50876   1.51310   1.66571

 Mulliken charges:
               1
     1  Ni  -3.613883
     2  O   -0.583525
     3  O   -0.565116
     4  O   -0.618974
     5  O   -0.618502
 Sum of Mulliken charges =  -6.00000

 Dipole moment (field-independent basis, Debye):
    X=              0.0576    Y=              0.3099    Z=             -0.0036  Tot=              0.3153
 Quadrupole moment (field-independent basis, Debye-Ang):
   XX=           -197.7786   YY=           -198.0362   ZZ=           -151.6258
   XY=              0.6895   XZ=              0.0717   YZ=              0.2863

 Normal termination of Gaussian 16 at Sat Oct 18 12:05:29 2025.
