 Gaussian 16, Revision C.01,
 Gaussian 16:  ES64L-G16RevC.01  3-Jul-2019

 ---------------------------------------------------------------------
 #p PBE1PBE/GenECP SCF(Tight,XQC,MaxCycle=500,MaxConventional=20) Scan
 ---------------------------------------------------------------------

 -----------------------------
 Nickel ferrate (PBE0/LANL2DZ)
 -----------------------------
 Symbolic Z-matrix:
 Charge = -2 Multiplicity = 1

 SCF Done:  E(RPBE1PBE) =  -464.017551698     A.U. after   21 cycles
 SCF Done:  E(RPBE1PBE) =  -463.463118834     a.u. after    8 cycles

 Unable to determine electronic state:  an orbital has unidentified symmetry.
 Alpha  occ. eigenvalues --  -19.36008 -19.36004 -19.36004 -19.36003  -5.02104
 Alpha  occ. eigenvalues --   -3.64988  -3.64969  -3.64969  -1.47550  -1.47550
 Alpha  occ. eigenvalues --   -1.47319  -1.29940  -1.29798  -1.14325  -0.83865
 Alpha  occ. eigenvalues --   -0.83441  -0.83441  -0.45228  -0.45228  -0.44833
 Alpha  occ. eigenvalues --   -0.38460  -0.38460  -0.38392  -0.28700   0.14451
 Alpha  occ. eigenvalues --    0.14451
 Alpha virt. eigenvalues --   -0.15890  -0.15647   0.17144   0.19724   0.26087
 Alpha virt. eigenvalues --    0.26087   0.26664   0.37594   0.38355   0.38355
 Alpha virt. eigenvalues --    0.63131   0.63771   0.75644   0.75644   0.75843

 Mulliken charges:
               1
     1  Ni  -2.610540
     2  O    0.152635
     3  O    0.152635
     4  O    0.152635
     5  O    0.152635
 Sum of Mulliken charges =  -2.00000

 Dipole moment (field-independent basis, Debye):
    X=              0.0000    Y=             -0.0000    Z=              0.0000  Tot=              0.0000
 Quadrupole moment (field-independent basis, Debye-Ang):
   XX=            -79.5697   YY=           -129.4639   ZZ=           -129.4639
   XY=              0.0000   XZ=              0.0000   YZ=             -0.0000

 SCF Done:  E(RPBE1PBE) =  -465.165620236     A.U. after   21 cycles
 SCF Done:  E(RPBE1PBE) =  -464.814093264     a.u. after   10 cycles
 SCF Done:  E(RPBE1PBE) =  -466.393181618     A.U. after   21 cycles
 SCF Done:  E(RPBE1PBE) =  -465.876447582     a.u. after   12 cycles
 SCF Done:  E(RPBE1PBE) =  -465.282876729     A.U. after   21 cycles
 SCF Done:  E(RPBE1PBE) =  -466.709012099     a.u. after   14 cycles
 SCF Done:  E(RPBE1PBE) =  -467.838063056     A.U. after   10 cycles
 SCF Done:  E(RPBE1PBE) =  -468.305162264     A.U. after    9 cycles
 SCF Done:  E(RPBE1PBE) =  -468.935464591     A.U. after   10 cycles
 SCF Done:  E(RPBE1PBE) =  -468.935624454     A.U. after   10 cycles
 SCF Done:  E(RPBE1PBE) =  -468.935783129     A.U. after   10 cycles
 SCF Done:  E(RPBE1PBE) =  -468.935940615     A.U. after   10 cycles
 SCF Done:  E(RPBE1PBE) =  -468.936096985     A.U. after   10 cycles
 SCF Done:  E(RPBE1PBE) =  -468.936252165     A.U. after   10 cycles
 SCF Done:  E(RPBE1PBE) =  -468.936406216     A.U. after   10 cycles
 SCF Done:  E(RPBE1PBE) =  -468.936559145     A.U. after   10 cycles
 SCF Done:  E(RPBE1PBE) =  -468.936710915     A.U. after   10 cycles

                         Standard orientation:
 ---------------------------------------------------------------------
 Center     Atomic      Atomic             Coordinates (Angstroms)
 Number     Number       Type             X           Y           Z
 ---------------------------------------------------------------------
      1         28           0        0.000000    0.000000    0.000000
      2          8           0        5.773503    5.773503    5.773503
      3          8           0       -5.773503   -5.773503    5.773503
      4          8           0       -5.773503    5.773503   -5.773503
      5          8           0        5.773503   -5.773503   -5.773503
 ---------------------------------------------------------------------

 SCF Done:  E(RPBE1PBE) =  -468.936861586     A.U. after   10 cycles
 Normal termination of Gaussian 16 at Sat Oct 18 14:08:50 2025.
