 Gaussian 16, Revision C.01,
 Gaussian 16:  ES64L-G16RevC.01  3-Jul-2019

 ---------------------------------------------------------------------
 #p PBE1PBE/GenECP SCF(Tight,XQC,MaxCycle=500,MaxConventional=20) Scan
 ---------------------------------------------------------------------

 -----------------------------
 Nickel ferrate (PBE0/LANL2DZ)
 -----------------------------
 Symbolic Z-matrix:
 Charge =  0 Multiplicity = 1

 SCF Done:  E(RPBE1PBE) =  -464.219119632     A.U. after   21 cycles
 SCF Done:  E(RPBE1PBE) =  -464.219853175     a.u. after    6 cycles

 Unable to determine electronic state:  an orbital has unidentified symmetry.
 Alpha  occ. eigenvalues --  -19.37370 -19.37367 -19.37367 -19.37365  -4.95940
 Alpha  occ. eigenvalues --   -3.61799  -3.58117  -3.58117  -1.44455  -1.44455
 Alpha  occ. eigenvalues --   -1.42620  -1.28096  -1.27236  -1.16897  -0.87742
 Alpha  occ. eigenvalues --   -0.87079  -0.87079  -0.49258  -0.49258  -0.48954
 Alpha  occ. eigenvalues --   -0.42237  -0.42237  -0.42230  -0.33688  -0.27529
 Alpha virt. eigenvalues --   -0.18397   0.01672   0.01918   0.01918   0.04661
 Alpha virt. eigenvalues --    0.19238   0.19513   0.19513   0.27830   0.27830
 Alpha virt. eigenvalues --    0.28050   0.50711   0.50973   0.63696   0.63739

 Mulliken charges:
               1
     1  Ni   0.330177
     2  O   -0.082544
     3  O   -0.082544
     4  O   -0.082544
     5  O   -0.082544
 Sum of Mulliken charges =   0.00000

 Dipole moment (field-independent basis, Debye):
    X=              0.0000    Y=              0.0000    Z=              0.0000  Tot=              0.0000
 Quadrupole moment (field-independent basis, Debye-Ang):
   XX=            -33.6708   YY=            -35.4009   ZZ=            -35.4009
   XY=              0.0000   XZ=              0.0000   YZ=             -0.0000

 SCF Done:  E(RPBE1PBE) =  -465.530182692     A.U. after   16 cycles
 SCF Done:  E(RPBE1PBE) =  -466.535261028     A.U. after   16 cycles
 SCF Done:  E(RPBE1PBE) =  -467.301012633     A.U. after   15 cycles
 SCF Done:  E(RPBE1PBE) =  -467.879714810     A.U. after   15 cycles
 SCF Done:  E(RPBE1PBE) =  -468.312714747     A.U. after   16 cycles
 SCF Done:  E(RPBE1PBE) =  -468.632660134     A.U. after   15 cycles
 SCF Done:  E(RPBE1PBE) =  -468.865285475     A.U. after   16 cycles
 SCF Done:  E(RPBE1PBE) =  -469.030826787     A.U. after   17 cycles
 SCF Done:  E(RPBE1PBE) =  -468.717701891     A.U. after   11 cycles
 SCF Done:  E(RPBE1PBE) =  -468.717605467     A.U. after   16 cycles
 SCF Done:  E(RPBE1PBE) =  -468.717510330     A.U. after   20 cycles
 SCF Done:  E(RPBE1PBE) =  -468.717416506     A.U. after   11 cycles
 SCF Done:  E(RPBE1PBE) =  -468.717323882     A.U. after   11 cycles
 SCF Done:  E(RPBE1PBE) =  -468.717232488     A.U. after   11 cycles
 SCF Done:  E(RPBE1PBE) =  -468.717142294     A.U. after   11 cycles
 SCF Done:  E(RPBE1PBE) =  -468.717053251     A.U. after   11 cycles

                         Standard orientation:
 ---------------------------------------------------------------------
 Center     Atomic      Atomic             Coordinates (Angstroms)
 Number     Number       Type             X           Y           Z
 ---------------------------------------------------------------------
      1         28           0        0.000000    0.000000    0.000000
      2          8           0        5.773503    5.773503    5.773503
      3          8           0       -5.773503   -5.773503    5.773503
      4          8           0       -5.773503    5.773503   -5.773503
      5          8           0        5.773503   -5.773503   -5.773503
 ---------------------------------------------------------------------

 SCF Done:  E(RPBE1PBE) =  -468.716965385     A.U. after   21 cycles
 SCF Done:  E(RPBE1PBE) =  -468.716965385     a.u. after    1 cycles
 Normal termination of Gaussian 16 at Sat Oct 18 14:07:06 2025.
