 Gaussian 16, Revision C.01,
 Gaussian 16:  ES64L-G16RevC.01  3-Jul-2019

 ----------------------------------------------------------------------
 #p PBE1PBE/GenECP SCF(Tight,XQC,MaxCycle=500,MaxConventional=20) Opt(M
 axCycle=500)
 ----------------------------------------------------------------------

 -----------------------------
 Nickel ferrate (PBE0/LANL2DZ)
 -----------------------------
 Symbolic Z-matrix:
 Charge = -2 Multiplicity = 1

 SCF Done:  E(RPBE1PBE) =  -469.397115965     A.U. after   16 cycles
 SCF Done:  E(RPBE1PBE) =  -469.432787949     A.U. after   11 cycles
 SCF Done:  E(RPBE1PBE) =  -469.476366814     A.U. after   10 cycles
 SCF Done:  E(RPBE1PBE) =  -469.477183838     A.U. after    9 cycles
 Optimization completed.
    -- Stationary point found.

                         Standard orientation:
 ---------------------------------------------------------------------
 Center     Atomic      Atomic             Coordinates (Angstroms)
 Number     Number       Type             X           Y           Z
 ---------------------------------------------------------------------
      1         28           0        0.000000    0.000000    0.000000
      2          8           0        0.000000    1.396098    0.987168
      3          8           0       -1.396098    0.000000   -0.987168
      4          8           0        1.396098   -0.000000   -0.987168
      5          8           0        0.000000   -1.396098    0.987168
 ---------------------------------------------------------------------

 The electronic state is 1-A1.
 Alpha  occ. eigenvalues --  -18.81469 -18.81469 -18.81469 -18.81469  -3.83854
 Alpha  occ. eigenvalues --   -2.42407  -2.42407  -2.42407  -0.52580  -0.50564
 Alpha  occ. eigenvalues --   -0.50564  -0.50564  -0.07460  -0.07460  -0.04484
 Alpha  occ. eigenvalues --   -0.04484  -0.04484   0.03633   0.07307   0.07307
 Alpha  occ. eigenvalues --    0.07307   0.12837   0.12837   0.12837   0.13196
 Alpha  occ. eigenvalues --    0.13196
 Alpha virt. eigenvalues --    0.24661   0.24661   0.24662   0.30628   0.30628
 Alpha virt. eigenvalues --    0.30628   0.40905   0.62015   0.62015   0.62015
 Alpha virt. eigenvalues --    0.85600   0.99500   0.99500   0.99500   1.02566

 Mulliken charges:
               1
     1  Ni   0.717041
     2  O   -0.679260
     3  O   -0.679260
     4  O   -0.679260
     5  O   -0.679260
 Sum of Mulliken charges =  -2.00000

 Dipole moment (field-independent basis, Debye):
    X=              0.0000    Y=              0.0000    Z=             -0.0000  Tot=              0.0000
 Quadrupole moment (field-independent basis, Debye-Ang):
   XX=            -51.8968   YY=            -51.8968   ZZ=            -51.8964
   XY=              0.0000   XZ=              0.0000   YZ=              0.0000

 Normal termination of Gaussian 16 at Sat Oct 18 12:15:33 2025.
