 Gaussian 16, Revision C.01,
 Gaussian 16:  ES64L-G16RevC.01  3-Jul-2019

 ---------------------------------------------------------------------
 #p PBE1PBE/GenECP SCF(Tight,XQC,MaxCycle=500,MaxConventional=20) Scan
 ---------------------------------------------------------------------

 -----------------------------
 Nickel ferrate (PBE0/LANL2DZ)
 -----------------------------
 Symbolic Z-matrix:
 Charge = -4 Multiplicity = 1

 SCF Done:  E(RPBE1PBE) =  -468.623303037     A.U. after   17 cycles

 Unable to determine electronic state:  an orbital has unidentified symmetry.
 Alpha  occ. eigenvalues --  -18.50604 -18.50604 -18.50604 -18.50604  -3.59099
 Alpha  occ. eigenvalues --   -2.18160  -2.17959  -2.17959  -0.28064  -0.24948
 Alpha  occ. eigenvalues --   -0.24948  -0.24922   0.14414   0.14454   0.18380
 Alpha  occ. eigenvalues --    0.18380   0.18400   0.31570   0.33690   0.33812
 Alpha  occ. eigenvalues --    0.33812   0.41709   0.41793   0.41793   0.43609
 Alpha  occ. eigenvalues --    0.43708   0.45111
 Alpha virt. eigenvalues --    0.47484   0.47484   0.60758   0.60803   0.60803
 Alpha virt. eigenvalues --    0.65802   0.89763   0.89763   0.90994   1.24941
 Alpha virt. eigenvalues --    1.29349   1.29928   1.30928   1.30928   1.30967

 Mulliken charges:
               1
     1  Ni  -1.183349
     2  O   -0.704163
     3  O   -0.704163
     4  O   -0.704163
     5  O   -0.704163
 Sum of Mulliken charges =  -4.00000

 Dipole moment (field-independent basis, Debye):
    X=              0.0000    Y=              0.0000    Z=              0.0000  Tot=              0.0000
 Quadrupole moment (field-independent basis, Debye-Ang):
   XX=            -86.7965   YY=            -86.7965   ZZ=           -159.7813
   XY=              0.0000   XZ=              0.0000   YZ=              0.0000

 SCF Done:  E(RPBE1PBE) =  -468.689123028     A.U. after   13 cycles
 SCF Done:  E(RPBE1PBE) =  -468.731215905     A.U. after   12 cycles
 SCF Done:  E(RPBE1PBE) =  -468.755574171     A.U. after   12 cycles
 SCF Done:  E(RPBE1PBE) =  -468.766843560     A.U. after   13 cycles
 SCF Done:  E(RPBE1PBE) =  -468.768582237     A.U. after   13 cycles
 SCF Done:  E(RPBE1PBE) =  -468.763498134     A.U. after   14 cycles
 SCF Done:  E(RPBE1PBE) =  -468.753650549     A.U. after   13 cycles
 SCF Done:  E(RPBE1PBE) =  -468.740608927     A.U. after   14 cycles
 SCF Done:  E(RPBE1PBE) =  -468.725572234     A.U. after   13 cycles
 SCF Done:  E(RPBE1PBE) =  -468.762136319     A.U. after   16 cycles
 SCF Done:  E(RPBE1PBE) =  -468.763444291     A.U. after   16 cycles
 SCF Done:  E(RPBE1PBE) =  -468.764737325     A.U. after   16 cycles
 SCF Done:  E(RPBE1PBE) =  -468.766022775     A.U. after   16 cycles
 SCF Done:  E(RPBE1PBE) =  -468.767291592     A.U. after   16 cycles
 SCF Done:  E(RPBE1PBE) =  -468.768554251     A.U. after   10 cycles
 SCF Done:  E(RPBE1PBE) =  -468.769799443     A.U. after   11 cycles
 SCF Done:  E(RPBE1PBE) =  -468.771030781     A.U. after   11 cycles

                         Standard orientation:
 ---------------------------------------------------------------------
 Center     Atomic      Atomic             Coordinates (Angstroms)
 Number     Number       Type             X           Y           Z
 ---------------------------------------------------------------------
      1         28           0        0.000000    0.000000    0.000000
      2          8           0        5.773503    5.773503    5.773503
      3          8           0       -5.773503   -5.773503    5.773503
      4          8           0       -5.773503    5.773503   -5.773503
      5          8           0        5.773503   -5.773503   -5.773503
 ---------------------------------------------------------------------

 SCF Done:  E(RPBE1PBE) =  -468.772248523     A.U. after   21 cycles
 SCF Done:  E(RPBE1PBE) =  -468.772248523     a.u. after    1 cycles
 Normal termination of Gaussian 16 at Sat Oct 18 14:24:57 2025.
