 Gaussian 16, Revision C.01,
 Gaussian 16:  ES64L-G16RevC.01  3-Jul-2019

 ----------------------------------------------------------------------
 #p PBE1PBE/GenECP SCF(Tight,XQC,MaxCycle=500,MaxConventional=20) Opt(M
 axCycle=500)
 ----------------------------------------------------------------------

 -----------------------------
 Nickel ferrate (PBE0/LANL2DZ)
 -----------------------------
 Symbolic Z-matrix:
 Charge = -4 Multiplicity = 1

 SCF Done:  E(RPBE1PBE) =  -468.721942115     A.U. after   21 cycles
 SCF Done:  E(RPBE1PBE) =  -468.721953487     a.u. after    3 cycles
 SCF Done:  E(RPBE1PBE) =  -468.745835003     A.U. after   21 cycles
 SCF Done:  E(RPBE1PBE) =  -468.745835090     a.u. after    3 cycles
 SCF Done:  E(RPBE1PBE) =  -468.770150328     A.U. after   21 cycles
 SCF Done:  E(RPBE1PBE) =  -468.770150328     a.u. after    2 cycles
 SCF Done:  E(RPBE1PBE) =  -468.770433731     A.U. after   21 cycles
 SCF Done:  E(RPBE1PBE) =  -468.770433731     a.u. after    2 cycles
 SCF Done:  E(RPBE1PBE) =  -468.770507139     A.U. after   21 cycles
 SCF Done:  E(RPBE1PBE) =  -468.770507139     a.u. after    2 cycles
 SCF Done:  E(RPBE1PBE) =  -468.770516831     A.U. after   21 cycles
 SCF Done:  E(RPBE1PBE) =  -468.770516831     a.u. after    1 cycles
 Optimization completed.
    -- Stationary point found.

                         Standard orientation:
 ---------------------------------------------------------------------
 Center     Atomic      Atomic             Coordinates (Angstroms)
 Number     Number       Type             X           Y           Z
 ---------------------------------------------------------------------
      1         28           0       -0.000570   -0.000023    0.025787
      2          8           0        1.471477    0.031225    0.955773
      3          8           0       -0.024066    1.404657   -0.997694
      4          8           0        0.035793   -1.409929   -0.990079
      5          8           0       -1.481208   -0.025872    0.941745
 ---------------------------------------------------------------------

 The electronic state is 1-A.
 Alpha  occ. eigenvalues --  -18.52569 -18.52568 -18.52495 -18.52490  -3.53274
 Alpha  occ. eigenvalues --   -2.12146  -2.11867  -2.11477  -0.23051  -0.21199
 Alpha  occ. eigenvalues --   -0.21148  -0.21135   0.22815   0.23313   0.25052
 Alpha  occ. eigenvalues --    0.25836   0.26124   0.32388   0.36228   0.36345
 Alpha  occ. eigenvalues --    0.36398   0.41571   0.41675   0.41810   0.42021
 Alpha  occ. eigenvalues --    0.42091   0.44913
 Alpha virt. eigenvalues --    0.47935   0.47992   0.53915   0.55181   0.55476
 Alpha virt. eigenvalues --    0.66363   0.87781   0.87994   0.90212   1.12858
 Alpha virt. eigenvalues --    1.26665   1.27065   1.28061   1.30418   1.31043

 Mulliken charges:
               1
     1  Ni  -1.103593
     2  O   -0.694932
     3  O   -0.754249
     4  O   -0.754284
     5  O   -0.692942
 Sum of Mulliken charges =  -4.00000

 Dipole moment (field-independent basis, Debye):
    X=             -0.0110    Y=              0.0018    Z=              0.8780  Tot=              0.8781
 Quadrupole moment (field-independent basis, Debye-Ang):
   XX=           -149.0398   YY=            -87.6544   ZZ=            -86.4403
   XY=             -0.6315   XZ=              0.3271   YZ=              0.0051

 Normal termination of Gaussian 16 at Sat Oct 18 12:11:51 2025.
